; md.mdp — 100 ns production run (2 fs x 50,000,000 steps), 300 K / 1 bar
integrator  = md
dt          = 0.002
nsteps      = 50000000
nstxout-compressed = 5000   ; save one frame every 10 ps -> 5000 frames total
nstenergy   = 5000
nstlog      = 5000
cutoff-scheme = Verlet
nstlist     = 20
coulombtype = PME
rcoulomb    = 1.2
rvdw        = 1.2
pbc         = xyz
tcoupl      = V-rescale
tc-grps     = Protein Non-Protein
tau_t       = 0.1 0.1
ref_t       = 300 300
pcoupl      = Parrinello-Rahman
pcoupltype  = isotropic
tau_p       = 2.0
ref_p       = 1.0
compressibility = 4.5e-5
gen_vel     = no
constraints = h-bonds
lincs-iter  = 1
lincs-order = 4
